1
Lattice="-3.073785 3.073785 3.073785 3.073785 -3.073785 3.073785 3.073785 3.073785 -3.073785" Properties=species:S:1:pos:R:3:forces:R:3:magmoms:R:1 energy=-0.85319665 stress="-3.1018565216102797e-05 0.0 -0.0 0.0 -3.1018565216102797e-05 0.0 -0.0 0.0 -3.1018565216102797e-05" bandgap=0.0 e_per_atom_relaxed=-0.85663276 mp_id=mp-1 energy_per_atom=-0.85319665 ef_per_atom_relaxed=-0.85663276 corrected_total_energy=-0.85319665 ef_per_atom=0.04220572206896556 task_id=mp-990456 calc_id=0 ionic_step=0 pbc="T T T"
Cs       0.00000000       0.00000000       0.00000000      -0.00000000       0.00000000       0.00000000      -0.00000000
1
Lattice="-3.04249763 -3.08061715 3.02668249 -3.0418994 3.06481214 -3.04187004 3.026712 -3.08063112 -3.04248455" Properties=species:S:1:pos:R:3:forces:R:3:magmoms:R:1 energy=-0.85881928 stress="-9.113562643742205e-05 -7.730706988980675e-05 -7.719959110265904e-05 -7.730705116527937e-05 -0.000513438692913425 -7.7196663834879e-05 -7.719960982718642e-05 -7.719668255940637e-05 -9.121765859186353e-05" bandgap=0.0 e_per_atom_relaxed=-0.85663276 mp_id=mp-1 energy_per_atom=-0.85881928 ef_per_atom_relaxed=-0.85663276 corrected_total_energy=-0.85881928 ef_per_atom=0.036583092068965595 task_id=mp-1056804 calc_id=0 ionic_step=2 pbc="T T T"
Cs       3.02661043      -3.08068025      -3.04241800      -0.00008874       0.00001420       0.00009300      -0.00000000
1
Lattice="-3.03690553 -3.06608684 3.02459337 -3.03630424 3.05378431 -3.03627724 3.02462051 -3.06609969 -3.03689372" Properties=species:S:1:pos:R:3:forces:R:3 energy=-0.8586399 stress="-0.00017374018968084045 -7.221276262427908e-05 -7.384320708719707e-05 -7.221276886578822e-05 -0.0005448594048040175 -7.153324952574418e-05 -7.384323205323357e-05 -7.153326200876243e-05 -0.00017381373962437987" e_per_atom_relaxed=-0.85663276 mp_id=mp-1 energy_per_atom=-0.8586399 ef_per_atom_relaxed=-0.85663276 corrected_total_energy=-0.8586399 ef_per_atom=0.036762472068965546 task_id=mp-1056804 calc_id=0 ionic_step=1 pbc="T T T"
Cs       3.02452091      -3.06614860      -3.03682717      -0.00010089      -0.00017874       0.00006877
1
Lattice="-3.0350415 -3.0612434 3.023897 -3.03443919 3.05010836 -3.03441297 3.02392335 -3.06125588 -3.03503011" Properties=species:S:1:pos:R:3:forces:R:3 energy=-0.85856052 stress="-0.0002256191079729429 -6.95271099040119e-05 -7.022013586980436e-05 -6.952711614552103e-05 -0.0005814159799278979 -6.954893646142512e-05 -7.022013586980436e-05 -6.954893646142512e-05 -0.00022554689995386555" e_per_atom_relaxed=-0.85663276 mp_id=mp-1 energy_per_atom=-0.85856052 ef_per_atom_relaxed=-0.85663276 corrected_total_energy=-0.85856052 ef_per_atom=0.03684185206896551 task_id=mp-1056804 calc_id=0 ionic_step=0 pbc="T T T"
Cs       3.02382441      -3.06130470      -3.03496358      -0.00002504       0.00000055      -0.00000033
1
Lattice="-3.0328053 -3.04887255 3.02429112 -3.03120966 3.0401869 -3.03137695 3.02412387 -3.04867417 -3.0327748" Properties=species:S:1:pos:R:3:forces:R:3 energy=-0.85814267 stress="-0.00019105551536955745 -6.865673145640749e-05 -7.543225786159219e-05 -6.865672521489836e-05 -0.0005746369457945845 -7.012426628963079e-05 -7.543227658611956e-05 -7.012426628963079e-05 -0.00019019514206108183" e_per_atom_relaxed=-0.85663276 mp_id=mp-1 energy_per_atom=-0.85814267 ef_per_atom_relaxed=-0.85663276 corrected_total_energy=-0.85814267 ef_per_atom=0.03725970206896556 task_id=mp-1056804 calc_id=1 ionic_step=3 pbc="T T T"
Cs      -0.00002438      -0.00001172       0.00001609       0.00000902      -0.00000374      -0.00000563
1
Lattice="-3.0320599 -3.04474894 3.0244225 -3.03013315 3.03687974 -3.03036495 3.0241907 -3.04448027 -3.03202302" Properties=species:S:1:pos:R:3:forces:R:3 energy=-0.85806545 stress="-0.00030025615388133367 -6.324796447809957e-05 -6.912744735015421e-05 -6.324795199508132e-05 -0.0006656869824173632 -6.502594573373518e-05 -6.912743486713597e-05 -6.502593949222606e-05 -0.00029868751284178023" e_per_atom_relaxed=-0.85663276 mp_id=mp-1 energy_per_atom=-0.85806545 ef_per_atom_relaxed=-0.85663276 corrected_total_energy=-0.85806545 ef_per_atom=0.03733692206896555 task_id=mp-1056804 calc_id=1 ionic_step=2 pbc="T T T"
Cs       0.00000049       0.00000061      -0.00000073      -0.00067432      -0.00033305       0.00045570
1
Lattice="-3.01046492 -3.01397066 3.00835485 -3.0099326 3.01179655 -3.00999664 3.00829081 -3.01389643 -3.01045473" Properties=species:S:1:pos:R:3:forces:R:3 energy=-0.85650731 stress="-0.0006714277290245678 -0.00011383145130961582 -9.591664739388514e-05 -0.00011383146379263409 -0.0011484797781415737 -0.000117779305695883 -9.591663491086688e-05 -0.00011777928697135563 -0.0006639688759587722" e_per_atom_relaxed=-0.85663276 mp_id=mp-1 energy_per_atom=-0.85650731 ef_per_atom_relaxed=-0.85663276 corrected_total_energy=-0.85650731 ef_per_atom=0.038895062068965536 task_id=mp-1056804 calc_id=1 ionic_step=1 pbc="T T T"
Cs       0.00000015       0.00000015      -0.00000021       0.00000342      -0.00000334       0.00000682
1
Lattice="-3.002221 -3.002221 3.002221 -3.002221 3.002221 -3.002221 3.002221 -3.002221 -3.002221" Properties=species:S:1:pos:R:3:forces:R:3 energy=-0.85566461 stress="-0.001017769288872649 -0.00013868190130564664 -0.00010472610686093965 -0.0001386818950641375 -0.0014942378754750584 -0.00013394704255067857 -0.00010472609437792141 -0.00013394704255067857 -0.001021204347110643" e_per_atom_relaxed=-0.85663276 mp_id=mp-1 energy_per_atom=-0.85566461 ef_per_atom_relaxed=-0.85663276 corrected_total_energy=-0.85566461 ef_per_atom=0.03973776206896551 task_id=mp-1056804 calc_id=1 ionic_step=0 pbc="T T T"
Cs       0.00000000       0.00000000       0.00000000       0.00000536       0.00000689      -0.00000839
1
Lattice="-3.05502 3.05502 3.05502 3.05502 -3.05502 3.05502 3.05502 3.05502 -3.05502" Properties=species:S:1:pos:R:3:forces:R:3:magmoms:R:1 energy=-0.85663276 stress="-0.00041949562318816235 0.0 0.0 -0.0 -0.00041949562318816235 -0.0 -0.0 0.0 -0.00041949562318816235" bandgap=0.0 e_per_atom_relaxed=-0.85663276 mp_id=mp-1 energy_per_atom=-0.85663276 ef_per_atom_relaxed=-0.85663276 corrected_total_energy=-0.85663276 ef_per_atom=0.038769612068965564 task_id=mp-1439955 calc_id=0 ionic_step=0 pbc="T T T"
Cs       0.00000000       0.00000000       0.00000000       0.00000000      -0.00000000      -0.00000000       0.00100000
